User input:
--------------------------------------------------------------
 $molecule
 0 1
Pt     0.000287    -0.000284     0.001466
Cl     1.747290     1.750228     0.012141
Cl     1.759348    -1.735207    -0.004956
 N    -1.776859    -1.798738     0.012379
 N    -1.813842     1.788905    -0.005007
 H    -2.352075    -1.707703    -0.810362
 H    -1.337027    -2.705710     0.016174
 H    -2.793235     1.312792    -0.010345
 H    -1.716114     2.408168     0.885433
 H    -1.707526     2.410443    -0.892874
 H    -2.349971    -1.699794     0.835675
 $end

 $rem
 JOBTYPE OPT
 EXCHANGE B3LYP
! CORRELATION PBE
 UNRESTRICTED TRUE
 GEOM_OPT_MAX_CYCLES  75
 GEOM_OPT_TOL_DISPLACEMENT 2500
 GEOM_OPT_TOL_GRADIENT     800
 GEOM_OPT_TOL_ENERGY	5000
 SCF_ALGORITHM diis
 SCF_MAX_CYCLES 250
 SCF_CONVERGENCE 7
 BASIS LANL2DZ
 ECP LANL2DZ

! SOLVENT_METHOD PCM

 WAVEFUNCTION_ANALYSIS FALSE

 MOLDEN_FORMAT TRUE
 $end

--------------------------------------------------------------

   14    -262.2112744063      5.07E-08 Convergence criterion met
 Total energy in the final basis set = -262.2112744063
   10    -262.2352953416      8.98E-08 Convergence criterion met
 Total energy in the final basis set = -262.2352953416
   10    -262.2532552010      5.48E-08 Convergence criterion met
 Total energy in the final basis set = -262.2532552010
   10    -262.2658845139      4.85E-08 Convergence criterion met
 Total energy in the final basis set = -262.2658845139
   10    -262.2723258088      4.09E-08 Convergence criterion met
 Total energy in the final basis set = -262.2723258088
    9    -262.2729746034      5.73E-08 Convergence criterion met
 Total energy in the final basis set = -262.2729746034
    9    -262.2731794151      5.88E-08 Convergence criterion met
 Total energy in the final basis set = -262.2731794151
    9    -262.2731944506      7.09E-08 Convergence criterion met
 Total energy in the final basis set = -262.2731944506
    9    -262.2732329332      2.92E-08 Convergence criterion met
 Total energy in the final basis set = -262.2732329332

       Standard Nuclear Orientation (Angstroms)
    I     Atom         X            Y            Z
 ----------------------------------------------------
    1      Pt     -0.115164    -0.482648    -0.000859
    2      Cl     -1.534016     1.461593    -0.011023
    3      Cl      1.985068     0.695635     0.003771
    4      N       1.168426    -2.165094     0.010823
    5      N      -1.985719    -1.464963    -0.006101
    6      H       1.067680    -2.737352    -0.826499
    7      H       2.084906    -1.696963     0.012166
    8      H      -1.951756    -2.482799    -0.026310
    9      H      -2.466478    -1.134122     0.832096
   10      H      -2.475646    -1.101132    -0.825235
   11      H       1.060777    -2.728898     0.852969
 ----------------------------------------------------

    7    -262.2732383996      5.31E-08 Convergence criterion met
 Total energy in the final basis set = -262.2732383996
 Final energy is   -262.273238399574
 **  OPTIMIZATION CONVERGED  **
 Total job time:  135.76s(wall), 110.58s(cpu)
        *  Thank you very much for using Q-Chem.  Have a nice day.  *
